 Gaussian 09, Revision D.01,
 Gaussian 09:  ES64L-G09RevD.01 24-Apr-2013

 ----------------------------------------------------------------------
 # opt=(calcfc,noeigen) freq=noraman b3lyp scrf=(cpcm,solvent=dichloroe
 thane) nosymm def2svp empiricaldispersion=gd3
 ----------------------------------------------------------------------

 ------------
 Tri-alkyl-L4
 ------------
 Symbolic Z-matrix:
 Charge =  0 Multiplicity = 1

 SCF Done:  E(RB3LYP) =  -891.767314270     A.U. after   12 cycles
 SCF Done:  E(RB3LYP) =  -891.796429050     A.U. after   10 cycles
 SCF Done:  E(RB3LYP) =  -891.775672591     A.U. after   11 cycles
 SCF Done:  E(RB3LYP) =  -891.802340457     A.U. after    9 cycles
 SCF Done:  E(RB3LYP) =  -891.806157231     A.U. after   10 cycles
 SCF Done:  E(RB3LYP) =  -891.804233791     A.U. after   10 cycles
 SCF Done:  E(RB3LYP) =  -891.808897083     A.U. after    8 cycles
 SCF Done:  E(RB3LYP) =  -891.838930162     A.U. after   10 cycles
 SCF Done:  E(RB3LYP) =  -891.854652513     A.U. after   11 cycles
 SCF Done:  E(RB3LYP) =  -891.836871560     A.U. after   10 cycles
 SCF Done:  E(RB3LYP) =  -891.871204652     A.U. after    7 cycles
 SCF Done:  E(RB3LYP) =  -891.871210488     A.U. after    7 cycles
 SCF Done:  E(RB3LYP) =  -891.871214946     A.U. after    7 cycles
 SCF Done:  E(RB3LYP) =  -891.871217910     A.U. after    7 cycles
 SCF Done:  E(RB3LYP) =  -891.871219603     A.U. after    6 cycles
 SCF Done:  E(RB3LYP) =  -891.871220790     A.U. after    6 cycles
 SCF Done:  E(RB3LYP) =  -891.871221427     A.U. after    6 cycles
 SCF Done:  E(RB3LYP) =  -891.871221584     A.U. after    6 cycles
 SCF Done:  E(RB3LYP) =  -891.871221632     A.U. after    5 cycles
 Optimization completed.
    -- Stationary point found.
 Normal termination of Gaussian 09 at Tue May 14 18:28:47 2019.

 -------------------------------------------------------------------
 #N Geom=AllCheck Guess=TCheck SCRF=Check GenChk RB3LYP/def2SVP Freq
 -------------------------------------------------------------------

 Structure from the checkpoint file:  "Tri-alkyl-L4.chk"
 ------------
 Tri-alkyl-L4
 ------------
 Charge =  0 Multiplicity = 1

                          Input orientation:
 ---------------------------------------------------------------------
 Center     Atomic      Atomic             Coordinates (Angstroms)
 Number     Number       Type             X           Y           Z
 ---------------------------------------------------------------------
      1         15           0       -0.089020   -1.542065    0.038232
      2          6           0        0.595478   -0.562315    1.565197
      3          6           0        0.320200   -1.320442    2.884050
      4          6           0        2.091262   -0.220797    1.484532
      5          6           0       -0.264025    0.722816    1.664575
      6          1           0       -0.686196   -1.768980    2.901561
      7          1           0        1.052744   -2.106737    3.090659
      8          1           0        0.375578   -0.604205    3.721506
      9          1           0        2.341244    0.382555    0.599883
     10          1           0        2.397840    0.357133    2.374947
     11          1           0        2.708415   -1.131882    1.455847
     12          1           0        0.063434    1.307857    2.541790
     13          1           0       -0.196521    1.381294    0.793293
     14          1           0       -1.326457    0.470580    1.811003
     15          6           0        0.764603   -3.302757   -0.061277
     16          6           0        2.130349   -3.326979   -0.771475
     17          6           0        0.953359   -3.948165    1.323466
     18          6           0       -0.241084   -4.199723   -0.821859
     19          1           0        2.074180   -3.033173   -1.828501
     20          1           0        2.861131   -2.671642   -0.273874
     21          1           0        2.536888   -4.353496   -0.745794
     22          1           0        0.038456   -3.917889    1.932854
     23          1           0        1.218957   -5.010506    1.183409
     24          1           0        1.771578   -3.484756    1.890583
     25          1           0        0.181367   -5.213617   -0.937644
     26          1           0       -1.187689   -4.290344   -0.265873
     27          1           0       -0.484053   -3.828796   -1.826526
     28          6           0        0.701140   -0.677960   -1.479032
     29          6           0        0.138366   -1.303339   -2.777393
     30          6           0        0.506668    0.851262   -1.546912
     31          1           0        1.788422   -0.860341   -1.450117
     32          6           0        0.751360   -0.694619   -4.046161
     33          1           0       -0.957248   -1.156252   -2.794039
     34          1           0        0.303844   -2.387545   -2.797802
     35          6           0        1.121570    1.459757   -2.817090
     36          1           0       -0.572189    1.090108   -1.514255
     37          1           0        0.967986    1.341192   -0.681097
     38          6           0        0.564211    0.822634   -4.090880
     39          1           0        0.306015   -1.170017   -4.936627
     40          1           0        1.831660   -0.929611   -4.071801
     41          1           0        0.952573    2.550041   -2.820078
     42          1           0        2.217221    1.312516   -2.788509
     43          1           0        1.048397    1.250737   -4.984963
     44          1           0       -0.514033    1.054229   -4.172645
 ---------------------------------------------------------------------

 SCF Done:  E(RB3LYP) =  -891.871221632     A.U. after    1 cycles

 Alpha  occ. eigenvalues --  -77.03699 -10.20146 -10.20062 -10.18685 -10.17975
 Alpha  occ. eigenvalues --  -10.17927 -10.17781 -10.17766 -10.17757 -10.17694
 Alpha  occ. eigenvalues --  -10.17667 -10.17638 -10.17613 -10.17497 -10.17489
 Alpha  occ. eigenvalues --   -6.53191  -4.69807  -4.69788  -4.69309  -0.82458
 Alpha  occ. eigenvalues --   -0.80451  -0.79197  -0.73415  -0.73085  -0.67939
 Alpha  occ. eigenvalues --   -0.67703  -0.67451  -0.66570  -0.62678  -0.59870
 Alpha  occ. eigenvalues --   -0.57731  -0.54383  -0.53833  -0.50830  -0.47112
 Alpha  occ. eigenvalues --   -0.45576  -0.44684  -0.44317  -0.43857  -0.43571
 Alpha  occ. eigenvalues --   -0.43084  -0.42831  -0.42181  -0.39931  -0.39098
 Alpha  occ. eigenvalues --   -0.38423  -0.38298  -0.37840  -0.37248  -0.37045
 Alpha  occ. eigenvalues --   -0.36449  -0.35707  -0.34892  -0.33989  -0.33769
 Alpha  occ. eigenvalues --   -0.33701  -0.33433  -0.32856  -0.32527  -0.31442
 Alpha  occ. eigenvalues --   -0.29780  -0.27711  -0.27435  -0.21297
 Alpha virt. eigenvalues --    0.04156   0.04552   0.05879   0.06419   0.07167
 Alpha virt. eigenvalues --    0.07389   0.08478   0.09286   0.10407   0.10510
 Alpha virt. eigenvalues --    0.11338   0.11388   0.11628   0.12682   0.12708

 Mulliken charges:
               1
     1  P    0.227783
     2  C   -0.399331
     3  C    0.087205
     4  C    0.088039
     5  C    0.081718
     6  H    0.010640
     7  H    0.002931
     8  H    0.000326
     9  H    0.012134
    10  H    0.001285
    11  H    0.013278
    12  H    0.005671
    13  H   -0.000112
    14  H    0.005475
    15  C   -0.409120
    16  C    0.093397
    17  C    0.083782
    18  C    0.089686
    19  H    0.010757
    20  H    0.009982
    21  H    0.001306
    22  H    0.011119
    23  H    0.001069
    24  H    0.018969
    25  H    0.004785
    26  H    0.004261
    27  H    0.001958
    28  C   -0.232926
    29  C    0.035982
    30  C    0.036857
    31  H    0.014875
    32  C    0.033829
    33  H   -0.009951
    34  H    0.020884
    35  C    0.028867
    36  H   -0.001468
    37  H    0.028263
    38  C    0.030009
    39  H   -0.003027
    40  H   -0.011366
    41  H   -0.003179
    42  H   -0.011938
    43  H   -0.003648
    44  H   -0.011060
 Sum of Mulliken charges =  -0.00000

 Dipole moment (field-independent basis, Debye):
    X=              1.7803    Y=              0.1231    Z=             -0.1627  Tot=              1.7920
 Quadrupole moment (field-independent basis, Debye-Ang):
   XX=           -108.1984   YY=           -105.5544   ZZ=           -105.2264
   XY=             -2.9078   XZ=              0.0351   YZ=              0.0678

  Exact polarizability: 207.166  -2.333 249.939  -0.888  -1.485 253.246
 Approx polarizability: 239.940  -2.808 265.925  -0.172   2.658 263.553

                      1                      2                      3
                      A                      A                      A
 Frequencies --     40.3315                65.7625                95.1019
 Red. masses --      2.7289                 2.6651                 2.7387
 Frc consts  --      0.0026                 0.0068                 0.0146
 IR Inten    --      0.0125                 0.0619                 0.0044

                      4                      5                      6
                      A                      A                      A
 Frequencies --    113.9120               138.2811               169.4943
 Red. masses --      3.0965                 3.3366                 1.4229
 Frc consts  --      0.0237                 0.0376                 0.0241
 IR Inten    --      0.0721                 0.0653                 0.0805

                      7                      8                      9
                      A                      A                      A
 Frequencies --    192.4128               203.9301               226.8423
 Red. masses --      2.7890                 2.2570                 1.8901
 Frc consts  --      0.0608                 0.0553                 0.0573
 IR Inten    --      0.0316                 0.0670                 0.0854

                     10                     11                     12
                      A                      A                      A
 Frequencies --    230.2772               240.2633               251.1025
 Red. masses --      1.7257                 1.9660                 1.6486
 Frc consts  --      0.0539                 0.0669                 0.0612
 IR Inten    --      0.1589                 0.1777                 0.0085

                     13                     14                     15
                      A                      A                      A
 Frequencies --    262.8821               271.5654               288.1831
 Red. masses --      2.0613                 1.2741                 1.9596
 Frc consts  --      0.0839                 0.0554                 0.0959
 IR Inten    --      0.3090                 0.0207                 0.0129

                     16                     17                     18
                      A                      A                      A
 Frequencies --    296.2476               304.2734               323.4487
 Red. masses --      2.0903                 1.2910                 1.4647
 Frc consts  --      0.1081                 0.0704                 0.0903
 IR Inten    --      0.0442                 0.3070                 0.5209

                     19                     20                     21
                      A                      A                      A
 Frequencies --    342.6154               377.3864               383.6186
 Red. masses --      1.9346                 2.2772                 2.1864
 Frc consts  --      0.1338                 0.1911                 0.1896
 IR Inten    --      0.3896                 0.7508                 0.4613

                     22                     23                     24
                      A                      A                      A
 Frequencies --    396.7110               403.2777               429.6843
 Red. masses --      2.5838                 1.3504                 1.7992
 Frc consts  --      0.2396                 0.1294                 0.1957
 IR Inten    --      0.5090                 0.3327                 0.5963

                     25                     26                     27
                      A                      A                      A
 Frequencies --    431.4911               441.1410               457.5493
 Red. masses --      2.3801                 2.9101                 2.7323
 Frc consts  --      0.2611                 0.3337                 0.3370
 IR Inten    --      0.6235                 2.5147                 3.1194

                     28                     29                     30
                      A                      A                      A
 Frequencies --    466.1958               488.4046               527.5069
 Red. masses --      3.0264                 3.0963                 1.6334
 Frc consts  --      0.3875                 0.4352                 0.2678
 IR Inten    --      4.3592                 4.2429                 4.8766

                     31                     32                     33
                      A                      A                      A
 Frequencies --    574.4342               591.3193               733.7516
 Red. masses --      2.5589                 3.3648                 2.7483
 Frc consts  --      0.4975                 0.6932                 0.8718
 IR Inten    --      2.5836                 9.2438                 4.5341

                     34                     35                     36
                      A                      A                      A
 Frequencies --    806.4433               814.7887               818.6895
 Red. masses --      1.4760                 2.7698                 2.8130
 Frc consts  --      0.5656                 1.0834                 1.1109
 IR Inten    --      0.3351                12.8325                 6.4069

                     37                     38                     39
                      A                      A                      A
 Frequencies --    831.0554               867.5225               903.9660
 Red. masses --      3.1914                 1.7424                 2.0606
 Frc consts  --      1.2987                 0.7726                 0.9921
 IR Inten    --      1.7392                 6.2356                 2.2059

                     40                     41                     42
                      A                      A                      A
 Frequencies --    914.4583               930.7461               935.1909
 Red. masses --      1.8670                 1.7932                 1.6014
 Frc consts  --      0.9198                 0.9153                 0.8252
 IR Inten    --      2.3101                 1.9958                 3.0207

                     43                     44                     45
                      A                      A                      A
 Frequencies --    938.3246               943.8810               948.5246
 Red. masses --      1.7018                 1.6139                 1.6806
 Frc consts  --      0.8828                 0.8472                 0.8909
 IR Inten    --      2.3547                 2.5880                 4.4761

                     46                     47                     48
                      A                      A                      A
 Frequencies --    957.9133               964.7289              1021.9091
 Red. masses --      1.2280                 1.2241                 1.4799
 Frc consts  --      0.6639                 0.6713                 0.9105
 IR Inten    --      0.1983                 0.1665                 4.2218

                     49                     50                     51
                      A                      A                      A
 Frequencies --   1022.6711              1028.6329              1035.3625
 Red. masses --      1.8131                 1.3978                 1.3757
 Frc consts  --      1.1173                 0.8714                 0.8689
 IR Inten    --      6.8100                 1.2997                 1.7394

                     52                     53                     54
                      A                      A                      A
 Frequencies --   1036.6050              1054.5439              1062.6236
 Red. masses --      1.3863                 1.8216                 1.6554
 Frc consts  --      0.8776                 1.1935                 1.1013
 IR Inten    --      2.9757                 0.6814                 1.2451

                     55                     56                     57
                      A                      A                      A
 Frequencies --   1099.5616              1105.1417              1125.3045
 Red. masses --      1.3971                 1.6588                 1.8541
 Frc consts  --      0.9952                 1.1937                 1.3833
 IR Inten    --      3.0636                 0.2033                 2.2701

                     58                     59                     60
                      A                      A                      A
 Frequencies --   1183.5963              1189.6476              1193.2479
 Red. masses --      2.0199                 1.9947                 1.7401
 Frc consts  --      1.6672                 1.6633                 1.4598
 IR Inten    --     62.8896                15.9272                 1.8348

                     61                     62                     63
                      A                      A                      A
 Frequencies --   1202.5808              1214.6382              1217.2868
 Red. masses --      1.7737                 2.3846                 1.5318
 Frc consts  --      1.5113                 2.0728                 1.3373
 IR Inten    --      2.5304                 9.6151                 6.8530

                     64                     65                     66
                      A                      A                      A
 Frequencies --   1222.2131              1227.4324              1281.2007
 Red. masses --      2.5812                 2.6014                 1.2625
 Frc consts  --      2.2718                 2.3092                 1.2210
 IR Inten    --      1.6838                 0.5546                 0.9552

                     67                     68                     69
                      A                      A                      A
 Frequencies --   1291.0915              1293.8499              1328.0572
 Red. masses --      1.2405                 1.1936                 1.2124
 Frc consts  --      1.2183                 1.1772                 1.2598
 IR Inten    --      0.3501                 6.6795                 0.3858

                     70                     71                     72
                      A                      A                      A
 Frequencies --   1352.9047              1367.8388              1371.8511
 Red. masses --      1.3504                 1.3876                 1.4359
 Frc consts  --      1.4563                 1.5296                 1.5922
 IR Inten    --      0.2663                 2.2475                 2.3591

                     73                     74                     75
                      A                      A                      A
 Frequencies --   1377.1829              1382.2786              1382.3615
 Red. masses --      1.2363                 1.3587                 1.3447
 Frc consts  --      1.3815                 1.5296                 1.5140
 IR Inten    --      4.6011                 1.1134                 4.2176

                     76                     77                     78
                      A                      A                      A
 Frequencies --   1386.9963              1388.4605              1390.2996
 Red. masses --      1.3666                 1.2333                 1.3185
 Frc consts  --      1.5490                 1.4008                 1.5015
 IR Inten    --      1.5489                12.7563                 1.0338

                     79                     80                     81
                      A                      A                      A
 Frequencies --   1406.8481              1416.6145              1442.5090
 Red. masses --      1.2088                 1.2048                 1.0567
 Frc consts  --      1.4096                 1.4245                 1.2955
 IR Inten    --      3.6108                 3.8499                 0.9448

                     82                     83                     84
                      A                      A                      A
 Frequencies --   1449.1731              1449.9212              1452.8569
 Red. masses --      1.0601                 1.0453                 1.0628
 Frc consts  --      1.3117                 1.2947                 1.3218
 IR Inten    --      0.6755                 6.6610                 0.1107

                     85                     86                     87
                      A                      A                      A
 Frequencies --   1454.4391              1455.9473              1459.8704
 Red. masses --      1.0689                 1.0849                 1.0447
 Frc consts  --      1.3322                 1.3549                 1.3118
 IR Inten    --      1.4595                 5.7817                 0.5775

                     88                     89                     90
                      A                      A                      A
 Frequencies --   1464.6727              1466.4384              1467.8576
 Red. masses --      1.0801                 1.0621                 1.0570
 Frc consts  --      1.3652                 1.3456                 1.3418
 IR Inten    --      5.5887                 6.5486                 5.2790

                     91                     92                     93
                      A                      A                      A
 Frequencies --   1470.2332              1471.9650              1477.0844
 Red. masses --      1.0629                 1.0644                 1.0617
 Frc consts  --      1.3537                 1.3588                 1.3647
 IR Inten    --      4.5349                 1.8781                 2.1766

                     94                     95                     96
                      A                      A                      A
 Frequencies --   1483.4707              1485.2134              1489.6460
 Red. masses --      1.0856                 1.0511                 1.0564
 Frc consts  --      1.4076                 1.3660                 1.3811
 IR Inten    --      2.5019                17.2670                14.1297

                     97                     98                     99
                      A                      A                      A
 Frequencies --   1503.9446              3008.6156              3010.1251
 Red. masses --      1.0452                 1.0660                 1.0661
 Frc consts  --      1.3928                 5.6850                 5.6912
 IR Inten    --      4.7286                46.5889                38.3062

                    100                    101                    102
                      A                      A                      A
 Frequencies --   3010.8575              3014.1510              3016.1399
 Red. masses --      1.0656                 1.0444                 1.0431
 Frc consts  --      5.6915                 5.5907                 5.5908
 IR Inten    --     46.6273                47.7843                37.6454

                    103                    104                    105
                      A                      A                      A
 Frequencies --   3017.0021              3018.4189              3019.3872
 Red. masses --      1.0682                 1.0538                 1.0583
 Frc consts  --      5.7288                 5.6569                 5.6844
 IR Inten    --      6.5555                68.5823                13.4170

                    106                    107                    108
                      A                      A                      A
 Frequencies --   3020.7688              3023.4337              3027.4701
 Red. masses --      1.0471                 1.0434                 1.0450
 Frc consts  --      5.6297                 5.6195                 5.6433
 IR Inten    --     16.2653               133.9303                89.4955

                    109                    110                    111
                      A                      A                      A
 Frequencies --   3048.1150              3062.8100              3062.9381
 Red. masses --      1.0829                 1.0965                 1.1012
 Frc consts  --      5.9277                 6.0603                 6.0867
 IR Inten    --     37.5343                93.9608                70.4853

                    112                    113                    114
                      A                      A                      A
 Frequencies --   3067.8869              3089.2091              3092.3418
 Red. masses --      1.1048                 1.1016                 1.0970
 Frc consts  --      6.1263                 6.1941                 6.1806
 IR Inten    --    115.2253                19.7973                26.7790

                    115                    116                    117
                      A                      A                      A
 Frequencies --   3093.9357              3094.8915              3096.4717
 Red. masses --      1.0994                 1.0990                 1.0943
 Frc consts  --      6.2008                 6.2021                 6.1819
 IR Inten    --     50.5955                70.3582                42.8621

                    118                    119                    120
                      A                      A                      A
 Frequencies --   3100.0040              3125.2310              3125.8604
 Red. masses --      1.0950                 1.0968                 1.0968
 Frc consts  --      6.1999                 6.3119                 6.3142
 IR Inten    --     49.1251                21.2392                66.8105

                    121                    122                    123
                      A                      A                      A
 Frequencies --   3130.8007              3136.2291              3139.5484
 Red. masses --      1.0995                 1.1020                 1.1043
 Frc consts  --      6.3497                 6.3861                 6.4134
 IR Inten    --     27.9365                17.7156                27.7283

                    124                    125                    126
                      A                      A                      A
 Frequencies --   3142.4569              3173.0092              3179.5875
 Red. masses --      1.0945                 1.0962                 1.0940
 Frc consts  --      6.3679                 6.5027                 6.5162
 IR Inten    --     28.8561                27.2099                15.3864

 - Thermochemistry -
 -------------------
 Temperature   298.150 Kelvin.  Pressure   1.00000 Atm.
 Atom     1 has atomic number 15 and mass  30.97376

 Molecular mass:   228.20069 amu.
 Principal axes and moments of inertia in atomic units:
                           1         2         3
     Eigenvalues --  2610.029934430.621306025.31329
           X           -0.00452  -0.02281   0.99973
           Y           -0.47716   0.87863   0.01789
           Z            0.87880   0.47695   0.01485
 This molecule is an asymmetric top.
 Rotational symmetry number  1.
 Warning -- assumption of classical behavior for rotation
           may cause significant error
 Rotational temperatures (Kelvin)      0.03318     0.01955     0.01437
 Rotational constants (GHZ):           0.69146     0.40733     0.29953
 Zero-point vibrational energy    1065211.2 (Joules/Mol)
                                  254.59159 (Kcal/Mol)
 Warning -- explicit consideration of  32 degrees of freedom as
           vibrations may cause significant error
 Vibrational temperatures:     58.03    94.62   136.83   163.89   198.96
          (Kelvin)            243.86   276.84   293.41   326.38   331.32
                              345.68   361.28   378.23   390.72   414.63
                              426.23   437.78   465.37   492.95   542.97
                              551.94   570.78   580.23   618.22   620.82
                              634.70   658.31   670.75   702.70   758.96
                              826.48   850.78  1055.70  1160.29  1172.30
                             1177.91  1195.70  1248.17  1300.60  1315.70
                             1339.13  1345.53  1350.04  1358.03  1364.71
                             1378.22  1388.03  1470.30  1471.39  1479.97
                             1489.65  1491.44  1517.25  1528.88  1582.02
                             1590.05  1619.06  1702.93  1711.64  1716.82
                             1730.24  1747.59  1751.40  1758.49  1766.00
                             1843.36  1857.59  1861.56  1910.78  1946.53
                             1968.01  1973.79  1981.46  1988.79  1988.91
                             1995.58  1997.68  2000.33  2024.14  2038.19
                             2075.45  2085.03  2086.11  2090.33  2092.61
                             2094.78  2100.43  2107.33  2109.88  2111.92
                             2115.34  2117.83  2125.19  2134.38  2136.89
                             2143.27  2163.84  4328.72  4330.89  4331.95
                             4336.69  4339.55  4340.79  4342.83  4344.22
                             4346.21  4350.04  4355.85  4385.55  4406.69
                             4406.88  4414.00  4444.68  4449.18  4451.48
                             4452.85  4455.13  4460.21  4496.50  4497.41
                             4504.52  4512.33  4517.10  4521.29  4565.25
                             4574.71

 Zero-point correction=                           0.405718 (Hartree/Particle)
 Thermal correction to Energy=                    0.423969
 Thermal correction to Enthalpy=                  0.424913
 Thermal correction to Gibbs Free Energy=         0.362112
 Sum of electronic and zero-point Energies=           -891.465504
 Sum of electronic and thermal Energies=              -891.447253
 Sum of electronic and thermal Enthalpies=            -891.446309
 Sum of electronic and thermal Free Energies=         -891.509110

                     E (Thermal)             CV                S
                      KCal/Mol        Cal/Mol-Kelvin    Cal/Mol-Kelvin
 Total                  266.044             73.480            132.177
 Electronic               0.000              0.000              0.000
 Translational            0.889              2.981             42.177
 Rotational               0.889              2.981             32.610
 Vibrational            264.267             67.518             57.389
 Vibration     1          0.594              1.981              5.243
 Vibration     2          0.597              1.971              4.276
 Vibration     3          0.603              1.953              3.552
 Vibration     4          0.607              1.938              3.201
 Vibration     5          0.614              1.915              2.828
 Vibration     6          0.625              1.880              2.441
 Vibration     7          0.634              1.850              2.204
 Vibration     8          0.640              1.834              2.097
 Vibration     9          0.651              1.800              1.904
 Vibration    10          0.652              1.795              1.877
 Vibration    11          0.657              1.779              1.801
 Vibration    12          0.663              1.761              1.723
 Vibration    13          0.670              1.741              1.643
 Vibration    14          0.675              1.726              1.586
 Vibration    15          0.685              1.696              1.485
 Vibration    16          0.690              1.681              1.438
 Vibration    17          0.695              1.666              1.393
 Vibration    18          0.708              1.629              1.293
 Vibration    19          0.722              1.590              1.200
 Vibration    20          0.748              1.518              1.050
 Vibration    21          0.753              1.505              1.025
 Vibration    22          0.763              1.477              0.975
 Vibration    23          0.769              1.463              0.951
 Vibration    24          0.791              1.406              0.860
 Vibration    25          0.793              1.402              0.854
 Vibration    26          0.801              1.380              0.823
 Vibration    27          0.816              1.344              0.773
 Vibration    28          0.824              1.325              0.748
 Vibration    29          0.844              1.276              0.688
 Vibration    30          0.882              1.189              0.593
 Vibration    31          0.931              1.087              0.496
 Vibration    32          0.949              1.050              0.465

 Optimization completed.
    -- Stationary point found.
 Normal termination of Gaussian 09 at Tue May 14 20:25:39 2019.
