 Gaussian 09, Revision D.01,
 Gaussian 09:  ES64L-G09RevD.01 24-Apr-2013

 ----------------------------------------------------------------------
 # opt=(calcfc,noeigen) freq=noraman b3lyp scrf=(cpcm,solvent=dichloroe
 thane) nosymm def2svp empiricaldispersion=gd3
 ----------------------------------------------------------------------

 ------------
 Tri-alkyl-L5
 ------------
 Symbolic Z-matrix:
 Charge =  0 Multiplicity = 1

 SCF Done:  E(RB3LYP) =  -969.173422331     A.U. after   12 cycles
 SCF Done:  E(RB3LYP) =  -969.185240683     A.U. after   10 cycles
 SCF Done:  E(RB3LYP) =  -969.214484740     A.U. after   10 cycles
 SCF Done:  E(RB3LYP) =  -969.237220623     A.U. after   11 cycles
 SCF Done:  E(RB3LYP) =  -969.239037851     A.U. after   10 cycles
 SCF Done:  E(RB3LYP) =  -969.197779801     A.U. after   11 cycles
 SCF Done:  E(RB3LYP) =  -969.239942219     A.U. after    8 cycles
 SCF Done:  E(RB3LYP) =  -969.246613289     A.U. after   12 cycles
 SCF Done:  E(RB3LYP) =  -969.243946219     A.U. after   10 cycles
 SCF Done:  E(RB3LYP) =  -969.248177506     A.U. after    8 cycles
 SCF Done:  E(RB3LYP) =  -969.253004359     A.U. after    8 cycles
 SCF Done:  E(RB3LYP) =  -969.253056803     A.U. after    8 cycles
 SCF Done:  E(RB3LYP) =  -969.253104280     A.U. after    8 cycles
 SCF Done:  E(RB3LYP) =  -969.253114353     A.U. after    7 cycles
 SCF Done:  E(RB3LYP) =  -969.253115846     A.U. after    6 cycles
 SCF Done:  E(RB3LYP) =  -969.253116768     A.U. after    6 cycles
 SCF Done:  E(RB3LYP) =  -969.253117342     A.U. after    6 cycles
 SCF Done:  E(RB3LYP) =  -969.253117568     A.U. after    6 cycles
 SCF Done:  E(RB3LYP) =  -969.253117671     A.U. after    6 cycles
 Optimization completed.
    -- Stationary point found.
 Normal termination of Gaussian 09 at Tue May 14 18:48:57 2019.

 -------------------------------------------------------------------
 #N Geom=AllCheck Guess=TCheck SCRF=Check GenChk RB3LYP/def2SVP Freq
 -------------------------------------------------------------------

 Structure from the checkpoint file:  "Tri-alkyl-L5.chk"
 ------------
 Tri-alkyl-L5
 ------------
 Charge =  0 Multiplicity = 1

                          Input orientation:
 ---------------------------------------------------------------------
 Center     Atomic      Atomic             Coordinates (Angstroms)
 Number     Number       Type             X           Y           Z
 ---------------------------------------------------------------------
      1         15           0       -0.231021   -1.406610    0.134495
      2          6           0        0.548765   -0.469282    1.627190
      3          6           0        0.242776   -1.233815    2.934616
      4          6           0        2.060259   -0.220300    1.508165
      5          6           0       -0.208070    0.876015    1.739059
      6          1           0       -0.794894   -1.606298    2.958098
      7          1           0        0.915205   -2.081130    3.103745
      8          1           0        0.366193   -0.548215    3.790574
      9          1           0        2.308641    0.432181    0.657934
     10          1           0        2.435074    0.275996    2.421297
     11          1           0        2.622359   -1.158933    1.386109
     12          1           0        0.183640    1.442377    2.602168
     13          1           0       -0.103521    1.515509    0.854397
     14          1           0       -1.284286    0.711170    1.907808
     15          6           0        0.668087   -0.706747   -1.397073
     16          6           0        0.193827   -1.454728   -2.665107
     17          6           0        0.487416    0.809674   -1.600689
     18          1           0        1.747445   -0.909540   -1.266519
     19          6           0        0.874363   -0.942324   -3.942153
     20          1           0       -0.900705   -1.330981   -2.764015
     21          1           0        0.379538   -2.535016   -2.579648
     22          6           0        1.160546    1.317057   -2.884899
     23          1           0       -0.592263    1.046227   -1.634530
     24          1           0        0.903995    1.365307   -0.750647
     25          6           0        0.673591    0.563662   -4.124396
     26          1           0        0.487524   -1.495708   -4.814749
     27          1           0        1.956946   -1.160406   -3.886377
     28          1           0        0.981992    2.400556   -2.991628
     29          1           0        2.254644    1.187553   -2.790357
     30          1           0        1.197342    0.920671   -5.027297
     31          1           0       -0.401596    0.771510   -4.278823
     32          6           0        0.497585   -3.177914    0.033814
     33          6           0        1.137039   -3.832484    1.270568
     34          6           0       -0.613943   -4.106573   -0.508431
     35          1           0        1.296218   -3.123904   -0.727258
     36          6           0        1.685840   -5.229433    0.935805
     37          1           0        0.387377   -3.929669    2.074000
     38          1           0        1.953357   -3.210266    1.664423
     39          6           0       -0.082479   -5.505786   -0.844804
     40          1           0       -1.406190   -4.188338    0.258744
     41          1           0       -1.096927   -3.664481   -1.394008
     42          6           0        0.600117   -6.148834    0.366946
     43          1           0        2.136197   -5.677295    1.838071
     44          1           0        2.501168   -5.127679    0.195708
     45          1           0       -0.904570   -6.144327   -1.210609
     46          1           0        0.645352   -5.424698   -1.673581
     47          1           0        1.026411   -7.130074    0.097612
     48          1           0       -0.157970   -6.338804    1.149404
 ---------------------------------------------------------------------

 SCF Done:  E(RB3LYP) =  -969.253117671     A.U. after    1 cycles

 Alpha  occ. eigenvalues --  -77.03533 -10.19947 -10.18642 -10.18530 -10.17986
 Alpha  occ. eigenvalues --  -10.17978 -10.17947 -10.17826 -10.17778 -10.17775
 Alpha  occ. eigenvalues --  -10.17770 -10.17753 -10.17714 -10.17680 -10.17644
 Alpha  occ. eigenvalues --  -10.17581 -10.17560  -6.53069  -4.69685  -4.69660
 Alpha  occ. eigenvalues --   -4.69189  -0.82671  -0.81912  -0.79858  -0.74292
 Alpha  occ. eigenvalues --   -0.73124  -0.73011  -0.72440  -0.67689  -0.67173
 Alpha  occ. eigenvalues --   -0.63161  -0.60191  -0.59567  -0.58836  -0.56573
 Alpha  occ. eigenvalues --   -0.54631  -0.54108  -0.51255  -0.47213  -0.46949
 Alpha  occ. eigenvalues --   -0.44990  -0.44077  -0.43583  -0.43568  -0.43384
 Alpha  occ. eigenvalues --   -0.43259  -0.42648  -0.42440  -0.40444  -0.38678
 Alpha  occ. eigenvalues --   -0.38378  -0.37897  -0.37666  -0.37592  -0.37076
 Alpha  occ. eigenvalues --   -0.36209  -0.35548  -0.34841  -0.34071  -0.33836
 Alpha  occ. eigenvalues --   -0.33624  -0.33383  -0.33126  -0.32752  -0.31439
 Alpha  occ. eigenvalues --   -0.31331  -0.30528  -0.29587  -0.27451  -0.27119
 Alpha  occ. eigenvalues --   -0.21419
 Alpha virt. eigenvalues --    0.03920   0.04629   0.05386   0.06358   0.06837
 Alpha virt. eigenvalues --    0.07121   0.07970   0.08669   0.09503   0.09811
 Alpha virt. eigenvalues --    0.10816   0.11238   0.12075   0.12290   0.12623

 Mulliken charges:
               1
     1  P    0.216751
     2  C   -0.402061
     3  C    0.081361
     4  C    0.091923
     5  C    0.083805
     6  H    0.010012
     7  H    0.008979
     8  H    0.001088
     9  H    0.010380
    10  H    0.002933
    11  H    0.009172
    12  H    0.006395
    13  H   -0.000384
    14  H    0.005567
    15  C   -0.239693
    16  C    0.039971
    17  C    0.045105
    18  H    0.015434
    19  C    0.036073
    20  H   -0.004423
    21  H    0.014928
    22  C    0.029853
    23  H   -0.006331
    24  H    0.026370
    25  C    0.025908
    26  H   -0.003566
    27  H   -0.011843
    28  H   -0.003270
    29  H   -0.011828
    30  H   -0.003623
    31  H   -0.010907
    32  C   -0.232344
    33  C    0.045654
    34  C    0.061047
    35  H    0.015935
    36  C    0.031543
    37  H    0.002624
    38  H    0.014076
    39  C    0.036008
    40  H   -0.012220
    41  H   -0.003437
    42  C    0.020288
    43  H   -0.004138
    44  H   -0.011645
    45  H   -0.003252
    46  H   -0.010636
    47  H   -0.003300
    48  H   -0.010282
 Sum of Mulliken charges =  -0.00000

 Dipole moment (field-independent basis, Debye):
    X=              1.8125    Y=             -0.1476    Z=             -0.1189  Tot=              1.8224
 Quadrupole moment (field-independent basis, Debye-Ang):
   XX=           -120.3149   YY=           -116.5421   ZZ=           -116.9463
   XY=             -2.4368   XZ=              0.1211   YZ=             -0.0787

  Exact polarizability: 228.981   1.507 278.499   0.354  -0.734 275.011
 Approx polarizability: 265.682   1.081 287.280  -1.265   2.291 289.097

                      1                      2                      3
                      A                      A                      A
 Frequencies --     42.4599                57.0644                69.4060
 Red. masses --      2.8596                 2.6961                 3.4897
 Frc consts  --      0.0030                 0.0052                 0.0099
 IR Inten    --      0.0006                 0.0137                 0.0729

                      4                      5                      6
                      A                      A                      A
 Frequencies --     82.7872               102.4860               144.7265
 Red. masses --      2.7798                 3.2710                 3.0340
 Frc consts  --      0.0112                 0.0202                 0.0374
 IR Inten    --      0.0597                 0.0444                 0.0355

                      7                      8                      9
                      A                      A                      A
 Frequencies --    156.3323               193.9325               203.8545
 Red. masses --      2.5768                 2.6273                 2.4428
 Frc consts  --      0.0371                 0.0582                 0.0598
 IR Inten    --      0.1376                 0.0197                 0.1968

                     10                     11                     12
                      A                      A                      A
 Frequencies --    214.7033               233.2543               238.1105
 Red. masses --      1.9068                 1.9511                 2.0168
 Frc consts  --      0.0518                 0.0625                 0.0674
 IR Inten    --      0.1024                 0.2158                 0.1282

                     13                     14                     15
                      A                      A                      A
 Frequencies --    245.8453               270.3939               280.7309
 Red. masses --      1.7415                 2.0174                 1.5998
 Frc consts  --      0.0620                 0.0869                 0.0743
 IR Inten    --      0.2403                 0.0501                 0.1327

                     16                     17                     18
                      A                      A                      A
 Frequencies --    284.3688               291.4018               327.3138
 Red. masses --      1.5600                 1.5680                 2.1853
 Frc consts  --      0.0743                 0.0784                 0.1379
 IR Inten    --      0.0420                 0.2486                 0.5388

                     19                     20                     21
                      A                      A                      A
 Frequencies --    338.3309               371.8772               381.1179
 Red. masses --      1.9287                 2.8718                 2.1311
 Frc consts  --      0.1301                 0.2340                 0.1824
 IR Inten    --      0.1565                 0.7375                 0.5531

                     22                     23                     24
                      A                      A                      A
 Frequencies --    405.7884               434.7401               438.1253
 Red. masses --      2.9458                 2.4759                 3.0568
 Frc consts  --      0.2858                 0.2757                 0.3457
 IR Inten    --      2.8527                 2.0569                 3.0765

                     25                     26                     27
                      A                      A                      A
 Frequencies --    455.8394               456.4485               464.0013
 Red. masses --      3.0671                 2.9787                 2.5246
 Frc consts  --      0.3755                 0.3656                 0.3202
 IR Inten    --      1.2480                 1.1652                 2.1983

                     28                     29                     30
                      A                      A                      A
 Frequencies --    479.4594               522.2572               532.1544
 Red. masses --      2.8412                 1.6351                 1.7272
 Frc consts  --      0.3848                 0.2628                 0.2882
 IR Inten    --      2.0575                 5.1151                 2.9896

                     31                     32                     33
                      A                      A                      A
 Frequencies --    587.3072               722.1673               743.2242
 Red. masses --      3.0462                 2.5777                 2.7538
 Frc consts  --      0.6191                 0.7921                 0.8962
 IR Inten    --      8.7144                 3.0976                 4.0853

                     34                     35                     36
                      A                      A                      A
 Frequencies --    804.5853               813.6465               815.4247
 Red. masses --      1.4720                 1.4541                 2.6760
 Frc consts  --      0.5614                 0.5672                 1.0483
 IR Inten    --      0.1997                 0.6152                10.8206

                     37                     38                     39
                      A                      A                      A
 Frequencies --    828.2015               830.6056               867.6758
 Red. masses --      3.1633                 3.1429                 1.7035
 Frc consts  --      1.2784                 1.2775                 0.7556
 IR Inten    --      1.2445                 1.5272                 7.1244

                     40                     41                     42
                      A                      A                      A
 Frequencies --    869.3162               899.2309               904.6947
 Red. masses --      1.7566                 2.0214                 1.9342
 Frc consts  --      0.7821                 0.9630                 0.9327
 IR Inten    --      4.8240                 3.1762                 0.6339

                     43                     44                     45
                      A                      A                      A
 Frequencies --    909.7367               913.8257               932.7330
 Red. masses --      2.0121                 1.7497                 1.6451
 Frc consts  --      0.9812                 0.8609                 0.8433
 IR Inten    --      1.0897                 4.5779                 0.4212

                     46                     47                     48
                      A                      A                      A
 Frequencies --    935.2738               937.5263               945.2842
 Red. masses --      1.7197                 1.6431                 1.6497
 Frc consts  --      0.8863                 0.8509                 0.8685
 IR Inten    --      3.3564                 2.3871                 2.4586

                     49                     50                     51
                      A                      A                      A
 Frequencies --    957.3060              1018.9348              1024.1504
 Red. masses --      1.2181                 1.8202                 1.7698
 Frc consts  --      0.6577                 1.1134                 1.0937
 IR Inten    --      0.2205                10.0876                 3.8950

                     52                     53                     54
                      A                      A                      A
 Frequencies --   1026.1286              1029.7934              1045.2614
 Red. masses --      1.6721                 1.4378                 1.8119
 Frc consts  --      1.0374                 0.8983                 1.1664
 IR Inten    --      5.4608                 0.9632                 1.6983

                     55                     56                     57
                      A                      A                      A
 Frequencies --   1053.2938              1061.5039              1063.6199
 Red. masses --      1.8006                 1.6329                 1.6094
 Frc consts  --      1.1770                 1.0841                 1.0727
 IR Inten    --      0.2081                 1.2291                 1.7451

                     58                     59                     60
                      A                      A                      A
 Frequencies --   1094.8007              1097.4245              1099.5336
 Red. masses --      1.0982                 1.2575                 2.5093
 Frc consts  --      0.7755                 0.8923                 1.7874
 IR Inten    --      1.3328                 1.6436                 0.7748

                     61                     62                     63
                      A                      A                      A
 Frequencies --   1105.6185              1118.2445              1135.5233
 Red. masses --      1.9332                 1.8190                 1.9744
 Frc consts  --      1.3923                 1.3402                 1.4999
 IR Inten    --      0.1345                 1.4920                 0.9882

                     64                     65                     66
                      A                      A                      A
 Frequencies --   1190.2742              1192.9984              1198.7144
 Red. masses --      1.9966                 1.5138                 1.3712
 Frc consts  --      1.6666                 1.2694                 1.1609
 IR Inten    --     37.4170                 7.3573                 1.4911

                     67                     68                     69
                      A                      A                      A
 Frequencies --   1208.1820              1211.2769              1226.2871
 Red. masses --      2.0667                 1.4973                 2.6223
 Frc consts  --      1.7774                 1.2943                 2.3234
 IR Inten    --      0.6540                11.9239                 0.5540

                     70                     71                     72
                      A                      A                      A
 Frequencies --   1230.9911              1280.0485              1281.0048
 Red. masses --      1.3710                 1.2726                 1.2728
 Frc consts  --      1.2240                 1.2286                 1.2306
 IR Inten    --      6.5418                 0.7543                 2.4654

                     73                     74                     75
                      A                      A                      A
 Frequencies --   1284.8164              1288.6910              1291.1358
 Red. masses --      1.2267                 1.2166                 1.1949
 Frc consts  --      1.1931                 1.1904                 1.1736
 IR Inten    --      1.4645                 5.0555                 5.7548

                     76                     77                     78
                      A                      A                      A
 Frequencies --   1298.6223              1322.3412              1326.9413
 Red. masses --      1.2109                 1.2180                 1.2173
 Frc consts  --      1.2032                 1.2548                 1.2628
 IR Inten    --      1.0339                 0.4732                 0.6894

                     79                     80                     81
                      A                      A                      A
 Frequencies --   1351.9365              1353.2971              1366.7255
 Red. masses --      1.3445                 1.3608                 1.4202
 Frc consts  --      1.4478                 1.4684                 1.5630
 IR Inten    --      0.2940                 0.1462                 0.9151

                     82                     83                     84
                      A                      A                      A
 Frequencies --   1368.3852              1373.2561              1374.9257
 Red. masses --      1.4215                 1.4567                 1.4847
 Frc consts  --      1.5683                 1.6186                 1.6537
 IR Inten    --      0.6670                 1.9030                 2.5966

                     85                     86                     87
                      A                      A                      A
 Frequencies --   1379.1668              1381.8922              1382.4222
 Red. masses --      1.3107                 1.3855                 1.4227
 Frc consts  --      1.4689                 1.5589                 1.6020
 IR Inten    --      8.1252                 3.5076                 2.1498

                     88                     89                     90
                      A                      A                      A
 Frequencies --   1383.9034              1385.1170              1388.7243
 Red. masses --      1.4436                 1.4176                 1.4003
 Frc consts  --      1.6290                 1.6024                 1.5912
 IR Inten    --      3.8650                 1.8127                 1.4456

                     91                     92                     93
                      A                      A                      A
 Frequencies --   1408.8015              1445.8971              1452.3840
 Red. masses --      1.2129                 1.0582                 1.0857
 Frc consts  --      1.4183                 1.3035                 1.3494
 IR Inten    --      3.8856                 0.5574                 1.5946

                     94                     95                     96
                      A                      A                      A
 Frequencies --   1454.4142              1455.0978              1456.6496
 Red. masses --      1.0500                 1.0742                 1.0849
 Frc consts  --      1.3086                 1.3400                 1.3562
 IR Inten    --      2.8423                 2.4936                 3.1285

                     97                     98                     99
                      A                      A                      A
 Frequencies --   1457.7797              1458.7904              1460.7103
 Red. masses --      1.0746                 1.0792                 1.0951
 Frc consts  --      1.3455                 1.3531                 1.3766
 IR Inten    --      3.0032                 3.3676                12.9066

                    100                    101                    102
                      A                      A                      A
 Frequencies --   1464.0776              1468.0969              1469.8842
 Red. masses --      1.0881                 1.0864                 1.0827
 Frc consts  --      1.3742                 1.3796                 1.3782
 IR Inten    --      8.1660                 8.4154                 3.2252

                    103                    104                    105
                      A                      A                      A
 Frequencies --   1471.0413              1475.0071              1480.2818
 Red. masses --      1.0641                 1.0705                 1.0855
 Frc consts  --      1.3567                 1.3723                 1.4015
 IR Inten    --      2.6284                 3.5723                 4.1459

                    106                    107                    108
                      A                      A                      A
 Frequencies --   1483.3471              1490.4389              3006.5870
 Red. masses --      1.0821                 1.0662                 1.0765
 Frc consts  --      1.4028                 1.3955                 5.7332
 IR Inten    --      3.2340                 6.0778                12.9017

                    109                    110                    111
                      A                      A                      A
 Frequencies --   3008.2106              3008.9551              3010.2598
 Red. masses --      1.0686                 1.0661                 1.0651
 Frc consts  --      5.6975                 5.6872                 5.6867
 IR Inten    --     39.7488                43.2551                46.4299

                    112                    113                    114
                      A                      A                      A
 Frequencies --   3010.6334              3011.2812              3011.3652
 Red. masses --      1.0700                 1.0644                 1.0659
 Frc consts  --      5.7143                 5.6869                 5.6952
 IR Inten    --     25.0789                 5.0660                79.7656

                    115                    116                    117
                      A                      A                      A
 Frequencies --   3012.8958              3013.3401              3013.7545
 Red. masses --      1.0617                 1.0706                 1.0494
 Frc consts  --      5.6784                 5.7278                 5.6155
 IR Inten    --      7.1876                 4.4649                33.9790

                    118                    119                    120
                      A                      A                      A
 Frequencies --   3018.5059              3019.7534              3020.0570
 Red. masses --      1.0454                 1.0715                 1.0760
 Frc consts  --      5.6120                 5.7569                 5.7820
 IR Inten    --     29.0979               151.6589                33.2841

                    121                    122                    123
                      A                      A                      A
 Frequencies --   3023.3252              3035.3499              3062.7044
 Red. masses --      1.0448                 1.0664                 1.0985
 Frc consts  --      5.6266                 5.7888                 6.0711
 IR Inten    --     84.0529                60.4513                50.6832

                    124                    125                    126
                      A                      A                      A
 Frequencies --   3062.8280              3062.9509              3063.1472
 Red. masses --      1.1009                 1.0985                 1.0966
 Frc consts  --      6.0849                 6.0721                 6.0622
 IR Inten    --    127.0541               153.6822                 7.2399

                    127                    128                    129
                      A                      A                      A
 Frequencies --   3067.8630              3067.9449              3081.7618
 Red. masses --      1.1048                 1.1046                 1.0972
 Frc consts  --      6.1262                 6.1257                 6.1398
 IR Inten    --     33.8847               181.4020                49.7546

                    130                    131                    132
                      A                      A                      A
 Frequencies --   3085.9090              3091.8053              3094.3760
 Red. masses --      1.1022                 1.0971                 1.0996
 Frc consts  --      6.1840                 6.1790                 6.2033
 IR Inten    --     20.7627                31.8497                68.2715

                    133                    134                    135
                      A                      A                      A
 Frequencies --   3102.5868              3102.9291              3117.4667
 Red. masses --      1.1016                 1.0948                 1.0951
 Frc consts  --      6.2476                 6.2103                 6.2703
 IR Inten    --     53.0509                39.6594                47.1517

                    136                    137                    138
                      A                      A                      A
 Frequencies --   3122.2857              3156.6337              3170.9846
 Red. masses --      1.1026                 1.0961                 1.0959
 Frc consts  --      6.3329                 6.4349                 6.4925
 IR Inten    --     27.6908                19.0861                21.9222

 - Thermochemistry -
 -------------------
 Temperature   298.150 Kelvin.  Pressure   1.00000 Atm.
 Atom     1 has atomic number 15 and mass  30.97376

 Molecular mass:   254.21634 amu.
 Principal axes and moments of inertia in atomic units:
                           1         2         3
     Eigenvalues --  3587.124795891.355158415.12815
           X            0.01491   0.01680   0.99975
           Y            0.85863   0.51216  -0.02142
           Z           -0.51239   0.85873  -0.00679
 This molecule is an asymmetric top.
 Rotational symmetry number  1.
 Warning -- assumption of classical behavior for rotation
           may cause significant error
 Rotational temperatures (Kelvin)      0.02415     0.01470     0.01029
 Rotational constants (GHZ):           0.50312     0.30634     0.21446
 Zero-point vibrational energy    1165307.1 (Joules/Mol)
                                  278.51508 (Kcal/Mol)
 Warning -- explicit consideration of  31 degrees of freedom as
           vibrations may cause significant error
 Vibrational temperatures:     61.09    82.10    99.86   119.11   147.45
          (Kelvin)            208.23   224.93   279.03   293.30   308.91
                              335.60   342.59   353.72   389.04   403.91
                              409.14   419.26   470.93   486.78   535.05
                              548.34   583.84   625.49   630.36   655.85
                              656.73   667.59   689.83   751.41   765.65
                              845.00  1039.04  1069.33  1157.62  1170.65
                             1173.21  1191.60  1195.05  1248.39  1250.75
                             1293.79  1301.65  1308.91  1314.79  1341.99
                             1345.65  1348.89  1360.05  1377.35  1466.02
                             1473.52  1476.37  1481.64  1503.90  1515.45
                             1527.27  1530.31  1575.17  1578.95  1581.98
                             1590.74  1608.90  1633.76  1712.54  1716.46
                             1724.68  1738.30  1742.76  1764.35  1771.12
                             1841.70  1843.08  1848.56  1854.14  1857.65
                             1868.43  1902.55  1909.17  1945.13  1947.09
                             1966.41  1968.80  1975.81  1978.21  1984.31
                             1988.23  1988.99  1991.13  1992.87  1998.06
                             2026.95  2080.32  2089.65  2092.58  2093.56
                             2095.79  2097.42  2098.87  2101.63  2106.48
                             2112.26  2114.83  2116.50  2122.20  2129.79
                             2134.20  2144.41  4325.80  4328.14  4329.21
                             4331.09  4331.62  4332.56  4332.68  4334.88
                             4335.52  4336.12  4342.95  4344.75  4345.18
                             4349.89  4367.19  4406.54  4406.72  4406.90
                             4407.18  4413.97  4414.08  4433.96  4439.93
                             4448.41  4452.11  4463.92  4464.42  4485.33
                             4492.27  4541.69  4562.33

 Zero-point correction=                           0.443842 (Hartree/Particle)
 Thermal correction to Energy=                    0.462664
 Thermal correction to Enthalpy=                  0.463608
 Thermal correction to Gibbs Free Energy=         0.398457
 Sum of electronic and zero-point Energies=           -968.809276
 Sum of electronic and thermal Energies=              -968.790453
 Sum of electronic and thermal Enthalpies=            -968.789509
 Sum of electronic and thermal Free Energies=         -968.854660

                     E (Thermal)             CV                S
                      KCal/Mol        Cal/Mol-Kelvin    Cal/Mol-Kelvin
 Total                  290.326             76.216            137.122
 Electronic               0.000              0.000              0.000
 Translational            0.889              2.981             42.499
 Rotational               0.889              2.981             33.541
 Vibrational            288.549             70.255             61.081
 Vibration     1          0.595              1.980              5.141
 Vibration     2          0.596              1.975              4.556
 Vibration     3          0.598              1.969              4.170
 Vibration     4          0.600              1.961              3.824
 Vibration     5          0.605              1.947              3.406
 Vibration     6          0.616              1.908              2.740
 Vibration     7          0.620              1.896              2.594
 Vibration     8          0.635              1.848              2.190
 Vibration     9          0.640              1.834              2.098
 Vibration    10          0.645              1.819              2.003
 Vibration    11          0.654              1.790              1.854
 Vibration    12          0.656              1.782              1.817
 Vibration    13          0.660              1.770              1.760
 Vibration    14          0.674              1.728              1.594
 Vibration    15          0.680              1.709              1.529
 Vibration    16          0.683              1.703              1.507
 Vibration    17          0.687              1.690              1.466
 Vibration    18          0.711              1.621              1.273
 Vibration    19          0.719              1.599              1.220
 Vibration    20          0.744              1.530              1.072
 Vibration    21          0.751              1.510              1.035
 Vibration    22          0.771              1.458              0.942
 Vibration    23          0.795              1.395              0.843
 Vibration    24          0.798              1.387              0.833
 Vibration    25          0.814              1.348              0.778
 Vibration    26          0.815              1.347              0.777
 Vibration    27          0.822              1.330              0.755
 Vibration    28          0.836              1.296              0.712
 Vibration    29          0.877              1.201              0.605
 Vibration    30          0.887              1.179              0.582
 Vibration    31          0.944              1.059              0.472

 Normal termination of Gaussian 09 at Tue May 14 21:48:31 2019.
